LAMMPS data file

  68 atoms
  0 bonds
  0 angles
  0 dihedrals
  0 impropers

  4 atom types
  0 bond types
  0 angle types
  0 dihedral types
  0 improper types

  0 11.00258152 xlo xhi
  0 9.5285151 ylo yhi
  0 29.23767764 zlo zhi
  5.50129076 0.0 0.0 xy xz yz

Masses

1 107.8682 # Ag
2 12.011 # C
3 1.008 # H
4 15.999 # O

Atoms # full

 1 0 1 0.0 0.0 0.0 10.000000029344745
 2 0 1 0.0 2.75064538 0.0 10.000000029344745
 3 0 1 0.0 5.50129076 0.0 10.000000029344745
 4 0 1 0.0 8.25193614 0.0 10.000000029344745
 5 0 1 0.0 1.37532269 2.382128775 10.000000029344745
 6 0 1 0.0 4.12596807 2.382128775 10.000000029344745
 7 0 1 0.0 6.87661345 2.382128775 10.000000029344745
 8 0 1 0.0 9.627258829999999 2.382128775 10.000000029344745
 9 0 1 0.0 2.75064538 4.76425755 10.000000029344745
 10 0 1 0.0 5.50129076 4.76425755 10.000000029344745
 11 0 1 0.0 8.25193614 4.76425755 10.000000029344745
 12 0 1 0.0 11.00258152 4.76425755 10.000000029344745
 13 0 1 0.0 4.12596807 7.146386325 10.000000029344745
 14 0 1 0.0 6.87661345 7.146386325 10.000000029344745
 15 0 1 0.0 9.627258829999999 7.146386325 10.000000029344745
 16 0 1 0.0 12.37790421 7.146386325 10.000000029344745
 17 0 1 0.0 1.3753226349870922 0.7940428932382829 12.245892529638123
 18 0 1 0.0 4.125968014987092 0.7940428932382829 12.245892529638123
 19 0 1 0.0 6.876613394987092 0.7940428932382829 12.245892529638123
 20 0 1 0.0 9.62725877498709 0.7940428932382829 12.245892529638123
 21 0 1 0.0 2.7506453249870924 3.176171668238283 12.245892529638123
 22 0 1 0.0 5.501290704987092 3.176171668238283 12.245892529638123
 23 0 1 0.0 8.251936084987092 3.176171668238283 12.245892529638123
 24 0 1 0.0 11.002581464987092 3.176171668238283 12.245892529638123
 25 0 1 0.0 4.125968014987092 5.5583004432382825 12.245892529638123
 26 0 1 0.0 6.876613394987093 5.5583004432382825 12.245892529638123
 27 0 1 0.0 9.627258774987093 5.5583004432382825 12.245892529638123
 28 0 1 0.0 12.37790415498709 5.5583004432382825 12.245892529638123
 29 0 1 0.0 5.501290704987092 7.9404292182382825 12.245892529638123
 30 0 1 0.0 8.251936084987092 7.9404292182382825 12.245892529638123
 31 0 1 0.0 11.002581464987092 7.9404292182382825 12.245892529638123
 32 0 1 0.0 13.75322684498709 7.9404292182382825 12.245892529638123
 33 0 1 0.0 11.008745001128782 1.590326226232029 14.352261370349536
 34 0 1 0.0 2.7433591954529177 1.584903167148015 14.470736533421686
 35 0 1 0.0 5.499816249037597 1.5531568228190429 14.40852752670706
 36 0 1 0.0 8.279021690043953 1.589799489917301 14.424861740074197
 37 0 1 0.0 12.413101138205034 3.9542060843976596 14.457819912193886
 38 0 1 0.0 4.102266253876708 3.9868996584127228 14.493689279876191
 39 0 1 0.0 6.874241348437195 3.977753808479139 14.495873626772678
 40 0 1 0.0 9.677834561511705 3.991393496704185 14.438933249568775
 41 0 1 0.0 13.734720667909176 6.332569761941047 14.434138855189369
 42 0 1 0.0 5.523356712302897 6.3694398746947405 14.479325685981989
 43 0 1 0.0 8.226119627708563 6.406106744221352 14.487290029371126
 44 0 1 0.0 11.071820600466637 6.362500447717713 14.4710523003402
 45 0 1 0.0 15.081107723782633 8.72535094039709 14.400966955646131
 46 0 1 0.0 6.793569705564757 8.76908501428822 14.46328297226092
 47 0 1 0.0 9.648045732201197 8.753215748814927 14.410502239454864
 48 0 1 0.0 12.398717298345215 8.738966997904688 14.498424029393213
 49 0 1 0.0 10.982127280851058 0.063889265456406 16.634912940855802
 50 0 1 0.0 8.195725491375732 9.469132059904686 16.63170585999547
 51 0 1 0.0 5.498713790369293 0.00036465627287699995 16.65176612300105
 52 0 1 0.0 8.268128144106816 0.037372456069767 16.70386620267165
 53 0 1 0.0 1.3642308225309652 2.318029786926243 16.740588433410714
 54 0 1 0.0 4.149910787645672 2.339853421485528 16.627366111503367
 55 0 1 0.0 6.826243576788531 2.376431008825653 16.678524153200403
 56 0 1 0.0 9.630868501932174 2.422068784748613 16.633550172701003
 57 0 1 0.0 13.726548885575548 4.733985933953055 16.676663759772172
 58 0 1 0.0 5.507019914223279 4.79587983306237 16.66456170024342
 59 0 1 0.0 8.282185977476196 4.805491817954645 16.637115999865976
 60 0 1 0.0 10.994296741154164 4.777428149426673 16.673979740964818
 61 0 1 0.0 15.131848163939697 7.180365581557506 16.61964385608509
 62 0 1 0.0 6.850736863613465 7.196934430609443 16.729582786793465
 63 0 1 0.0 9.662011969079426 7.180067624890329 16.641944894705
 64 0 1 0.0 12.422272285018122 7.121140619527701 16.74276050048259
 65 0 2 0.0 11.822549677958705 7.252779628333278 18.81159196400234
 66 0 3 0.0 10.75880507808133 7.347656101320639 18.922539594589292
 67 0 3 0.0 12.172654847635023 8.176568690852523 19.26183231803754
 68 0 3 0.0 12.216506626515322 6.435598451307363 19.397995106574786

